Title: ** sch_path: /home/designer/icdesign/sch//tp2/tp1_1.sch
Date: Fri May 13 01:12:40  2022
Plotname: DC transfer characteristic
Flags: real
No. Variables: 25
No. Points: 231
Variables:
	0	v(v-sweep)	voltage
	1	@m.xm1.msky130_fd_pr__nfet_01v8[gm]	admittance
	2	i(@m.xm1.msky130_fd_pr__nfet_01v8[id])	current
	3	v(@m.xm1.msky130_fd_pr__nfet_01v8[value])	voltage dims=0
	4	v(@m.xm1.msky130_fd_pr__nfet_01v8[vds])	voltage
	5	v(@m.xm1.msky130_fd_pr__nfet_01v8[vdsat])	voltage
	6	v(@m.xm1.msky130_fd_pr__nfet_01v8[vgs])	voltage
	7	v(@m.xm1.msky130_fd_pr__nfet_01v8[vth])	voltage
	8	@m.xm2.msky130_fd_pr__pfet_01v8[gm]	admittance
	9	i(@m.xm2.msky130_fd_pr__pfet_01v8[id])	current
	10	v(@m.xm2.msky130_fd_pr__pfet_01v8[vdsat])	voltage
	11	v(@m.xm2.msky130_fd_pr__pfet_01v8[vsd])	voltage dims=0
	12	v(@m.xm2.msky130_fd_pr__pfet_01v8[vsg])	voltage dims=0
	13	v(@m.xm2.msky130_fd_pr__pfet_01v8[vth])	voltage
	14	v(m.xm1.msky130_fd_pr__nfet_01v8#body)	voltage
	15	v(m.xm1.msky130_fd_pr__nfet_01v8#dbody)	voltage
	16	v(m.xm1.msky130_fd_pr__nfet_01v8#sbody)	voltage
	17	v(m.xm2.msky130_fd_pr__pfet_01v8#body)	voltage
	18	v(m.xm2.msky130_fd_pr__pfet_01v8#dbody)	voltage
	19	v(m.xm2.msky130_fd_pr__pfet_01v8#sbody)	voltage
	20	v(net1)	voltage
	21	v(net2)	voltage
	22	i(vdd)	current
	23	i(vgs)	current
	24	v(vout)	voltage
Values:
 0	0.000000000000000e+00
	4.015235709092415e-14
	1.265262149921686e-15
	0.000000000000000e+00
	1.799999995901859e+00
	3.633334468976088e-02
	-4.892346997814248e-16
	8.050096630708820e-01
	6.700207357702394e-13
	9.920183026149355e-13
	6.666820363115156e-01
	0.000000000000000e+00
	0.000000000000000e+00
	8.299569933064627e-01
	2.250003440948265e-11
	5.625004201448274e-11
	1.125001720446008e-11
	1.800000000000000e+00
	1.800000000000000e+00
	1.800000000000000e+00
	0.000000000000000e+00
	1.800000000000000e+00
	-1.803002191991254e-12
	0.000000000000000e+00
	1.799999995902556e+00

 1	1.000000000000000e-02
	5.514809141256083e-14
	1.737805442028066e-15
	0.000000000000000e+00
	1.799999992527020e+00
	3.633334469109158e-02
	9.999999999999355e-03
	8.050096630709321e-01
	1.244737758291141e-12
	1.797032948257289e-12
	6.608584387784818e-01
	0.000000000000000e+00
	0.000000000000000e+00
	8.299569928098015e-01
	2.250004135038262e-11
	5.625004540056173e-11
	1.125002067491006e-11
	1.800000000000000e+00
	1.800000000000000e+00
	1.800000000000000e+00
	1.000000000000000e-02
	1.800000000000000e+00
	-1.804778548830654e-12
	0.000000000000000e+00
	1.799999992527717e+00

 2	2.000000000000000e-02
	7.574419391727370e-14
	2.386829432639924e-15
	0.000000000000000e+00
	1.799999992450246e+00
	3.633334469291929e-02
	1.999999999999908e-02
	8.050096630709332e-01
	1.280397428199957e-12
	1.802810296922100e-12
	6.550395126992429e-01
	0.000000000000000e+00
	0.000000000000000e+00
	8.299569927985029e-01
	2.250005387203465e-11
	5.625005165946842e-11
	1.125002693573609e-11
	1.800000000000000e+00
	1.800000000000000e+00
	1.800000000000000e+00
	2.000000000000000e-02
	1.800000000000000e+00
	-1.803890370410954e-12
	0.000000000000000e+00
	1.799999992450944e+00

 3	3.000000000000000e-02
	1.040321411280292e-13
	3.278243053533396e-15
	0.000000000000000e+00
	1.799999992390527e+00
	3.633334469542961e-02
	2.999999999999873e-02
	8.050096630709341e-01
	1.313530814274281e-12
	1.804053990266032e-12
	6.492247626021233e-01
	0.000000000000000e+00
	0.000000000000000e+00
	8.299569927897146e-01
	2.250006937427290e-11
	5.625005940909456e-11
	1.125003468685522e-11
	1.800000000000000e+00
	1.800000000000000e+00
	1.800000000000000e+00
	3.000000000000000e-02
	1.800000000000000e+00
	-1.804778548830654e-12
	0.000000000000000e+00
	1.799999992391225e+00

 4	4.000000000000000e-02
	1.428844433520811e-13
	4.502569003232744e-15
	0.000000000000000e+00
	1.799999992333360e+00
	3.633334469887740e-02
	3.999999999999826e-02
	8.050096630709352e-01
	1.346518458079822e-12
	1.804260760871344e-12
	6.434136829462127e-01
	0.000000000000000e+00
	0.000000000000000e+00
	8.299569927813018e-01
	2.250009066637466e-11
	5.625007005371629e-11
	1.125004533290611e-11
	1.800000000000000e+00
	1.800000000000000e+00
	1.800000000000000e+00
	4.000000000000000e-02
	1.800000000000000e+00
	-1.804778548830654e-12
	0.000000000000000e+00
	1.799999992334059e+00

 5	5.000000000000000e-02
	1.962462896618265e-13
	6.184135324342176e-15
	0.000000000000000e+00
	1.799999992264397e+00
	3.633334470361281e-02
	4.999999999999761e-02
	8.050096630709364e-01
	1.381887749350471e-12
	1.806791416483143e-12
	6.376057584511120e-01
	0.000000000000000e+00
	0.000000000000000e+00
	8.299569927711535e-01
	2.250011991040678e-11
	5.625008467400829e-11
	1.125005995492219e-11
	1.800000000000000e+00
	1.800000000000000e+00
	1.800000000000000e+00
	5.000000000000000e-02
	1.800000000000000e+00
	-1.807443084089755e-12
	0.000000000000000e+00
	1.799999992265098e+00

 6	6.000000000000000e-02
	2.695360831250114e-13
	8.493699151210236e-15
	0.000000000000000e+00
	1.799999992197113e+00
	3.633334471011670e-02
	5.999999999999672e-02
	8.050096630709374e-01
	1.417283331950767e-12
	1.808454404880976e-12
	6.318004641916138e-01
	0.000000000000000e+00
	0.000000000000000e+00
	8.299569927612521e-01
	2.250016007625365e-11
	5.625010475524964e-11
	1.125008003784564e-11
	1.800000000000000e+00
	1.800000000000000e+00
	1.800000000000000e+00
	6.000000000000000e-02
	1.800000000000000e+00
	-1.808331262509455e-12
	0.000000000000000e+00
	1.799999992197816e+00

 7	7.000000000000001e-02
	3.701955140588819e-13
	1.166578403761571e-14
	0.000000000000000e+00
	1.799999992120575e+00
	3.633334471904950e-02
	6.999999999999550e-02
	8.050096630709388e-01
	1.454693843802677e-12
	1.811767361560359e-12
	6.259972657118043e-01
	0.000000000000000e+00
	0.000000000000000e+00
	8.299569927499895e-01
	2.250021524248571e-11
	5.625013233645226e-11
	1.125010762096171e-11
	1.800000000000000e+00
	1.800000000000000e+00
	1.800000000000000e+00
	7.000000000000001e-02
	1.800000000000000e+00
	-1.812772154607956e-12
	0.000000000000000e+00
	1.799999992121280e+00

 8	8.000000000000000e-02
	5.084449881195043e-13
	1.602249060238133e-14
	0.000000000000000e+00
	1.799999992038587e+00
	3.633334473131829e-02
	7.999999999999381e-02
	8.050096630709404e-01
	1.493473316401990e-12
	1.815806443216760e-12
	6.201956191458003e-01
	0.000000000000000e+00
	0.000000000000000e+00
	8.299569927379247e-01
	2.250029101095064e-11
	5.625017021863507e-11
	1.125014550519421e-11
	1.800000000000000e+00
	1.800000000000000e+00
	1.800000000000000e+00
	8.000000000000000e-02
	1.800000000000000e+00
	-1.815436689867056e-12
	0.000000000000000e+00
	1.799999992039296e+00

 9	9.000000000000000e-02
	6.983210527662916e-13
	2.200619704703250e-14
	0.000000000000000e+00
	1.799999991943194e+00
	3.633334474816884e-02
	8.999999999999149e-02
	8.050096630709421e-01
	1.535169542143044e-12
	1.822334074782724e-12
	6.143949713575844e-01
	0.000000000000000e+00
	0.000000000000000e+00
	8.299569927238879e-01
	2.250039507515193e-11
	5.625022224835094e-11
	1.125019753729491e-11
	1.800000000000000e+00
	1.800000000000000e+00
	1.800000000000000e+00
	9.000000000000000e-02
	1.800000000000000e+00
	-1.822542117224657e-12
	0.000000000000000e+00
	1.799999991943907e+00

 10	9.999999999999999e-02
	9.591010583923847e-13
	3.022446794562226e-14
	0.000000000000000e+00
	1.799999991837655e+00
	3.633334477131206e-02
	9.999999999998831e-02
	8.050096630709445e-01
	1.579252795105789e-12
	1.830535893463665e-12
	6.085947600914107e-01
	0.000000000000000e+00
	0.000000000000000e+00
	8.299569927083593e-01
	2.250053800156550e-11
	5.625029370891934e-11
	1.125026900050178e-11
	1.800000000000000e+00
	1.800000000000000e+00
	1.800000000000000e+00
	9.999999999999999e-02
	1.800000000000000e+00
	-1.831423901421658e-12
	0.000000000000000e+00
	1.799999991838375e+00

 11	1.100000000000000e-01
	1.317259543265936e-12
	4.151172801089188e-14
	0.000000000000000e+00
	1.799999991718054e+00
	3.633334480309770e-02
	1.099999999999839e-01
	8.050096630709469e-01
	1.626563238064152e-12
	1.841216923451158e-12
	6.027944141402508e-01
	0.000000000000000e+00
	0.000000000000000e+00
	8.299569926907611e-01
	2.250073430200660e-11
	5.625039185614995e-11
	1.125036715072243e-11
	1.800000000000000e+00
	1.800000000000000e+00
	1.800000000000000e+00
	1.100000000000000e-01
	1.800000000000000e+00
	-1.841193864038360e-12
	0.000000000000000e+00
	1.799999991718782e+00

 12	1.200000000000000e-01
	1.809154712458369e-12
	5.701395761149533e-14
	0.000000000000000e+00
	1.799999991570344e+00
	3.633334484675312e-02
	1.199999999999779e-01
	8.050096630709502e-01
	1.680002088420571e-12
	1.857380289220906e-12
	5.969933535282000e-01
	0.000000000000000e+00
	0.000000000000000e+00
	8.299569926690289e-01
	2.250100390657157e-11
	5.625052665473983e-11
	1.125050195300506e-11
	1.800000000000000e+00
	1.800000000000000e+00
	1.800000000000000e+00
	1.200000000000000e-01
	1.800000000000000e+00
	-1.858957432432362e-12
	0.000000000000000e+00
	1.799999991571084e+00

 13	1.300000000000000e-01
	2.484717336581832e-12
	7.830500084622589e-14
	0.000000000000000e+00
	1.799999991395217e+00
	3.633334490671009e-02
	1.299999999999697e-01
	8.050096630709545e-01
	1.739650877041196e-12
	1.878697355889983e-12
	5.911909897062227e-01
	0.000000000000000e+00
	0.000000000000000e+00
	8.299569926432626e-01
	2.250137418671594e-11
	5.625071179043405e-11
	1.125068709307745e-11
	1.800000000000000e+00
	1.800000000000000e+00
	1.800000000000000e+00
	1.300000000000000e-01
	1.800000000000000e+00
	-1.880273714505165e-12
	0.000000000000000e+00
	1.799999991395973e+00

 14	1.400000000000000e-01
	3.412515891050913e-12
	1.075462809557320e-13
	0.000000000000000e+00
	1.799999991178082e+00
	3.633334498905556e-02
	1.399999999999584e-01
	8.050096630709600e-01
	1.808711040836742e-12
	1.908145499323430e-12
	5.853867257681824e-01
	0.000000000000000e+00
	0.000000000000000e+00
	8.299569926113173e-01
	2.250188273256309e-11
	5.625096605792953e-11
	1.125094136600130e-11
	1.800000000000000e+00
	1.800000000000000e+00
	1.800000000000000e+00
	1.400000000000000e-01
	1.800000000000000e+00
	-1.908695423935569e-12
	0.000000000000000e+00
	1.799999991178861e+00

 15	1.500000000000000e-01
	4.686711030091721e-12
	1.477061158067636e-13
	0.000000000000000e+00
	1.799999990907015e+00
	3.633334510214844e-02
	1.499999999999429e-01
	8.050096630709669e-01
	1.889989815695406e-12
	1.948006276897740e-12
	5.795799566793431e-01
	0.000000000000000e+00
	0.000000000000000e+00
	8.299569925714378e-01
	2.250258116734493e-11
	5.625131526854415e-11
	1.125129058339260e-11
	1.800000000000000e+00
	1.800000000000000e+00
	1.800000000000000e+00
	1.500000000000000e-01
	1.800000000000000e+00
	-1.948663452822075e-12
	0.000000000000000e+00
	1.799999990907825e+00

 16	1.600000000000000e-01
	6.436603569783856e-12
	2.028608622313828e-13
	0.000000000000000e+00
	1.799999990556587e+00
	3.633334525746800e-02
	1.599999999999216e-01
	8.050096630709764e-01
	1.989264529396312e-12
	2.003319284688648e-12
	5.737700695243025e-01
	0.000000000000000e+00
	0.000000000000000e+00
	8.299569925198844e-01
	2.250354038453887e-11
	5.625179486838094e-11
	1.125177019199009e-11
	1.800000000000000e+00
	1.800000000000000e+00
	1.800000000000000e+00
	1.600000000000000e-01
	1.800000000000000e+00
	-2.003730514843483e-12
	0.000000000000000e+00
	1.799999990557440e+00

 17	1.700000000000000e-01
	8.839742266549370e-12
	2.786084014299163e-13
	0.000000000000000e+00
	1.799999990098641e+00
	3.633334547077829e-02
	1.699999999998923e-01
	8.050096630709889e-01
	2.113165637025904e-12
	2.079472688699236e-12
	5.679564437698174e-01
	0.000000000000000e+00
	0.000000000000000e+00
	8.299569924525146e-01
	2.250485773911621e-11
	5.625245353422167e-11
	1.125242886927947e-11
	1.800000000000000e+00
	1.800000000000000e+00
	1.800000000000000e+00
	1.700000000000000e-01
	1.800000000000000e+00
	-2.079225680517993e-12
	0.000000000000000e+00
	1.799999990099552e+00

 18	1.800000000000000e-01
	1.213991714535589e-11
	3.826358434117599e-13
	0.000000000000000e+00
	1.799999989496813e+00
	3.633334576372676e-02
	1.799999999998521e-01
	8.050096630710053e-01
	2.270389815588298e-12
	2.183305981382808e-12
	5.621384515464170e-01
	0.000000000000000e+00
	0.000000000000000e+00
	8.299569923639792e-01
	2.250666692068080e-11
	5.625335810995926e-11
	1.125333346006276e-11
	1.800000000000000e+00
	1.800000000000000e+00
	1.800000000000000e+00
	1.800000000000000e-01
	1.800000000000000e+00
	-2.184030734042608e-12
	0.000000000000000e+00
	1.799999989497805e+00

 19	1.900000000000000e-01
	1.667185699119660e-11
	5.254989209281352e-13
	0.000000000000000e+00
	1.799999988687549e+00
	3.633334616603897e-02
	1.899999999997968e-01
	8.050096630710281e-01
	2.475956251332141e-12
	2.326918570868384e-12
	5.563154579490235e-01
	0.000000000000000e+00
	0.000000000000000e+00
	8.299569922449288e-01
	2.250915150802535e-11
	5.625460038340128e-11
	1.125457575373638e-11
	1.800000000000000e+00
	1.800000000000000e+00
	1.800000000000000e+00
	1.900000000000000e-01
	1.800000000000000e+00
	-2.327027459614328e-12
	0.000000000000000e+00
	1.799999988688652e+00

 20	2.000000000000000e-01
	2.289512516429370e-11
	7.216919301381298e-13
	0.000000000000000e+00
	1.799999987605071e+00
	3.633334671853201e-02
	1.999999999997210e-01
	8.050096630710588e-01
	2.746023402707226e-12
	2.522279119545958e-12
	5.504868213522992e-01
	0.000000000000000e+00
	0.000000000000000e+00
	8.299569920856876e-01
	2.251256357726678e-11
	5.625630639096190e-11
	1.125628178835895e-11
	1.800000000000000e+00
	1.800000000000000e+00
	1.800000000000000e+00
	2.000000000000000e-01
	1.800000000000000e+00
	-2.523314890368056e-12
	0.000000000000000e+00
	1.799999987606326e+00

 21	2.100000000000000e-01
	3.144063351794750e-11
	9.911164024844998e-13
	0.000000000000000e+00
	1.799999986132099e+00
	3.633334747724987e-02
	2.099999999996168e-01
	8.050096630711007e-01
	3.108942877215041e-12
	2.791104285883856e-12
	5.446518937509256e-01
	0.000000000000000e+00
	0.000000000000000e+00
	8.299569918690020e-01
	2.251724924356111e-11
	5.625864918728732e-11
	1.125862462150866e-11
	1.800000000000000e+00
	1.800000000000000e+00
	1.800000000000000e+00
	2.100000000000000e-01
	1.800000000000000e+00
	-2.791544773117494e-12
	0.000000000000000e+00
	1.799999986133562e+00

 22	2.200000000000001e-01
	4.317446194260996e-11
	1.361096897334390e-12
	0.000000000000000e+00
	1.799999984107086e+00
	3.633334851914036e-02
	2.199999999994738e-01
	8.050096630711582e-01
	3.604259605942005e-12
	3.162820455671550e-12
	5.388100211145532e-01
	0.000000000000000e+00
	0.000000000000000e+00
	8.299569915711070e-01
	2.252368371874094e-11
	5.626186637425541e-11
	1.126184185910207e-11
	1.800000000000000e+00
	1.800000000000000e+00
	1.800000000000000e+00
	2.200000000000001e-01
	1.800000000000000e+00
	-3.163691530971846e-12
	0.000000000000000e+00
	1.799999984108835e+00

 23	2.300000000000001e-01
	5.928540652988709e-11
	1.869147404466764e-12
	0.000000000000000e+00
	1.799999981341028e+00
	3.633334994984546e-02
	2.299999999992773e-01
	8.050096630712369e-01
	4.279373479997404e-12
	3.670722478410601e-12
	5.329605437617746e-01
	0.000000000000000e+00
	0.000000000000000e+00
	8.299569911641995e-01
	2.253251942325050e-11
	5.626628415736353e-11
	1.126625971136165e-11
	1.800000000000000e+00
	1.800000000000000e+00
	1.800000000000000e+00
	2.300000000000001e-01
	1.800000000000000e+00
	-3.671729587040318e-12
	0.000000000000000e+00
	1.799999981343170e+00

 24	2.400000000000001e-01
	8.140505374774473e-11
	2.566767328505398e-12
	0.000000000000000e+00
	1.799999977525942e+00
	3.633335191439114e-02
	2.399999999990076e-01
	8.050096630713452e-01
	5.211037055915803e-12
	4.369412859094464e-12
	5.271027967637216e-01
	0.000000000000000e+00
	0.000000000000000e+00
	8.299569906029715e-01
	2.254465200259628e-11
	5.627235035166586e-11
	1.127232600104113e-11
	1.800000000000000e+00
	1.800000000000000e+00
	1.800000000000000e+00
	2.400000000000001e-01
	1.800000000000000e+00
	-4.370726003344316e-12
	0.000000000000000e+00
	1.799999977528624e+00

 25	2.500000000000001e-01
	1.117724244189952e-10
	3.524649389876353e-12
	0.000000000000000e+00
	1.799999972271495e+00
	3.633335461185286e-02
	2.499999999986372e-01
	8.050096630714946e-01
	6.498157947348507e-12
	5.326332953789087e-12
	5.212361103581160e-01
	0.000000000000000e+00
	0.000000000000000e+00
	8.299569898300007e-01
	2.256131090060767e-11
	5.628067966931944e-11
	1.128065545005588e-11
	1.800000000000000e+00
	1.800000000000000e+00
	1.800000000000000e+00
	2.500000000000001e-01
	1.800000000000000e+00
	-5.326405982941651e-12
	0.000000000000000e+00
	1.799999972274918e+00

 26	2.600000000000001e-01
	1.534596663603616e-10
	4.839823239524768e-12
	0.000000000000000e+00
	1.799999964982977e+00
	3.633335831547265e-02
	2.599999999981287e-01
	8.050096630717004e-01
	8.291552360454575e-12
	6.643874454737201e-12
	5.153598103987661e-01
	0.000000000000000e+00
	0.000000000000000e+00
	8.299569887577991e-01
	2.258418359538603e-11
	5.629211583450810e-11
	1.129209179745749e-11
	1.800000000000000e+00
	1.800000000000000e+00
	1.800000000000000e+00
	2.600000000000001e-01
	1.800000000000000e+00
	-6.643574579356937e-12
	0.000000000000000e+00
	1.799999964987418e+00

 27	2.700000000000001e-01
	2.106813279895276e-10
	6.645452077088338e-12
	0.000000000000000e+00
	1.799999954894050e+00
	3.633336340024726e-02
	2.699999999974305e-01
	8.050096630719846e-01
	1.078836280890385e-11
	8.450721552008425e-12
	5.094732188149106e-01
	0.000000000000000e+00
	0.000000000000000e+00
	8.299569872736285e-01
	2.261558597647811e-11
	5.630781677284801e-11
	1.130779298802059e-11
	1.800000000000000e+00
	1.800000000000000e+00
	1.800000000000000e+00
	2.700000000000001e-01
	1.800000000000000e+00
	-8.451905841866392e-12
	0.000000000000000e+00
	1.799999954899886e+00

 28	2.800000000000001e-01
	2.892179983790143e-10
	9.124264024666176e-12
	0.000000000000000e+00
	1.799999940898095e+00
	3.633337038075139e-02
	2.799999999964720e-01
	8.050096630723766e-01
	1.427450498927163e-11
	1.093084753702061e-11
	5.035756541117824e-01
	0.000000000000000e+00
	0.000000000000000e+00
	8.299569852146909e-01
	2.265869593250431e-11
	5.632937140098567e-11
	1.132934796605711e-11
	1.800000000000000e+00
	1.800000000000000e+00
	1.800000000000000e+00
	2.800000000000001e-01
	1.800000000000000e+00
	-1.093081181124944e-11
	0.000000000000000e+00
	1.799999940905850e+00

 29	2.900000000000001e-01
	3.969963372201915e-10
	1.252696117390437e-11
	0.000000000000000e+00
	1.799999921457390e+00
	3.633337996297903e-02
	2.899999999951564e-01
	8.050096630729180e-01
	1.915032186958894e-11
	1.433579718822128e-11
	4.976664318899661e-01
	0.000000000000000e+00
	0.000000000000000e+00
	8.299569823547663e-01
	2.271787350749675e-11
	5.635895970249641e-11
	1.135893675358549e-11
	1.800000000000000e+00
	1.800000000000000e+00
	1.800000000000000e+00
	2.900000000000001e-01
	1.800000000000000e+00
	-1.433519969396002e-11
	0.000000000000000e+00
	1.799999921467777e+00

 30	3.000000000000001e-01
	5.448827969411737e-10
	1.719744195536535e-11
	0.000000000000000e+00
	1.799999894433687e+00
	3.633339311537117e-02
	2.999999999933504e-01
	8.050096630736669e-01
	2.597652208733105e-11
	1.900967752513025e-11
	4.917448653983947e-01
	0.000000000000000e+00
	0.000000000000000e+00
	8.299569783792869e-01
	2.279909954739808e-11
	5.639957204689863e-11
	1.139954977358029e-11
	1.800000000000000e+00
	1.800000000000000e+00
	1.800000000000000e+00
	3.000000000000001e-01
	1.800000000000000e+00
	-1.901057089526148e-11
	0.000000000000000e+00
	1.799999894447687e+00

 31	3.100000000000001e-01
	7.477690747029478e-10
	2.360734392421789e-11
	0.000000000000000e+00
	1.799999856848459e+00
	3.633341116609017e-02
	3.099999999908719e-01
	8.050096630747013e-01
	3.553945154133667e-11
	2.542399847916883e-11
	4.858102661221950e-01
	0.000000000000000e+00
	0.000000000000000e+00
	8.299569728500660e-01
	2.291057643662376e-11
	5.645530955194136e-11
	1.145528821825370e-11
	1.800000000000000e+00
	1.800000000000000e+00
	1.800000000000000e+00
	3.100000000000001e-01
	1.800000000000000e+00
	-2.542499544233578e-11
	0.000000000000000e+00
	1.799999856867418e+00

 32	3.200000000000001e-01
	1.026055413327353e-09
	3.240332777498896e-11
	0.000000000000000e+00
	1.799999804547089e+00
	3.633343593617479e-02
	3.199999999874708e-01
	8.050096630761315e-01
	4.894298068990162e-11
	3.422556866726420e-11
	4.798619444098302e-01
	0.000000000000000e+00
	0.000000000000000e+00
	8.299569651558903e-01
	2.306355041304709e-11
	5.653179523270187e-11
	1.153177520654848e-11
	1.800000000000000e+00
	1.800000000000000e+00
	1.800000000000000e+00
	3.200000000000001e-01
	1.800000000000000e+00
	-3.422595540314433e-11
	0.000000000000000e+00
	1.799999804572852e+00

 33	3.300000000000001e-01
	1.407675804517129e-09
	4.447176479844179e-11
	0.000000000000000e+00
	1.799999731726045e+00
	3.633346992170285e-02
	3.299999999828044e-01
	8.050096630781099e-01
	6.773845055284855e-11
	4.630272973570320e-11
	4.738992101458162e-01
	0.000000000000000e+00
	0.000000000000000e+00
	8.299569544429614e-01
	2.327343653548747e-11
	5.663673647351000e-11
	1.163671826788271e-11
	1.800000000000000e+00
	1.800000000000000e+00
	1.800000000000000e+00
	3.300000000000001e-01
	1.800000000000000e+00
	-4.630251737580693e-11
	0.000000000000000e+00
	1.799999731761144e+00

 34	3.400000000000001e-01
	1.930860240010484e-09
	6.102717337704820e-11
	0.000000000000000e+00
	1.799999630305748e+00
	3.633351654283303e-02
	3.399999999764030e-01
	8.050096630808462e-01
	9.409860026055156e-11
	6.287031361405124e-11
	4.679213734737607e-01
	0.000000000000000e+00
	0.000000000000000e+00
	8.299569395226281e-01
	2.356135664745551e-11
	5.678069399414304e-11
	1.178067832402318e-11
	1.800000000000000e+00
	1.800000000000000e+00
	1.800000000000000e+00
	3.400000000000001e-01
	1.800000000000000e+00
	-6.287059761689306e-11
	0.000000000000000e+00
	1.799999630353655e+00

 35	3.500000000000001e-01
	2.647897727597359e-09
	8.373302770639222e-11
	0.000000000000000e+00
	1.799999489026996e+00
	3.633358048400714e-02
	3.499999999676234e-01
	8.050096630846313e-01
	1.310683149271388e-10
	8.559084625415304e-11
	4.619277455843858e-01
	0.000000000000000e+00
	0.000000000000000e+00
	8.299569187384477e-01
	2.395624027625456e-11
	5.697813227678831e-11
	1.197812013863726e-11
	1.800000000000000e+00
	1.800000000000000e+00
	1.800000000000000e+00
	3.500000000000001e-01
	1.800000000000000e+00
	-8.559108977124197e-11
	0.000000000000000e+00
	1.799999489092468e+00

 36	3.600000000000002e-01
	3.630255432110909e-09
	1.148666352937947e-10
	0.000000000000000e+00
	1.799999292149635e+00
	3.633366815824965e-02
	3.599999999555851e-01
	8.050096630898691e-01
	1.829264052022639e-10
	1.167468003760646e-10
	4.559176395842026e-01
	0.000000000000000e+00
	0.000000000000000e+00
	8.299568897747343e-01
	2.449769183039019e-11
	5.724885313221629e-11
	1.224884591599928e-11
	1.800000000000000e+00
	1.800000000000000e+00
	1.800000000000000e+00
	3.600000000000002e-01
	1.800000000000000e+00
	-1.167466123774830e-10
	0.000000000000000e+00
	1.799999292239192e+00

 37	3.700000000000002e-01
	4.975531164496447e-09
	1.575439139469217e-10
	0.000000000000000e+00
	1.799999017767780e+00
	3.633378834014332e-02
	3.699999999390832e-01
	8.050096630971147e-01
	2.556586345598565e-10
	1.594540503419658e-10
	4.498903714493674e-01
	0.000000000000000e+00
	0.000000000000000e+00
	8.299568494086803e-01
	2.523989931090679e-11
	5.761995001333149e-11
	1.261994965666086e-11
	1.800000000000000e+00
	1.800000000000000e+00
	1.800000000000000e+00
	3.700000000000002e-01
	1.800000000000000e+00
	-1.594546716887635e-10
	0.000000000000000e+00
	1.799999017890352e+00

 38	3.800000000000002e-01
	6.816877510759849e-09
	2.160254393045446e-10
	0.000000000000000e+00
	1.799998635325366e+00
	3.633395302765761e-02
	3.799999999164703e-01
	8.050096631071397e-01
	3.576540815730797e-10
	2.179755685716671e-10
	4.438452611091245e-01
	0.000000000000000e+00
	0.000000000000000e+00
	8.299567931448322e-01
	2.625695600524195e-11
	5.812846879999132e-11
	1.312847800438107e-11
	1.800000000000000e+00
	1.800000000000000e+00
	1.800000000000000e+00
	3.800000000000002e-01
	1.800000000000000e+00
	-2.179758595843850e-10
	0.000000000000000e+00
	1.799998635493179e+00

 39	3.900000000000002e-01
	9.335747233741735e-09
	2.961325260282336e-10
	0.000000000000000e+00
	1.799998102216188e+00
	3.633417861382046e-02
	3.899999998854956e-01
	8.050096631210094e-01
	5.006626999615218e-10
	2.981383215222397e-10
	4.377816336782897e-01
	0.000000000000000e+00
	0.000000000000000e+00
	8.299567147148644e-01
	2.765009501941519e-11
	5.882502498010545e-11
	1.382504751222467e-11
	1.800000000000000e+00
	1.800000000000000e+00
	1.800000000000000e+00
	3.900000000000002e-01
	1.800000000000000e+00
	-2.981392910328395e-10
	0.000000000000000e+00
	1.799998102445973e+00

 40	4.000000000000002e-01
	1.277908443200175e-08
	4.058119164300753e-10
	0.000000000000000e+00
	1.799997359084367e+00
	3.633448747684299e-02
	3.999999998430863e-01
	8.050096631401947e-01
	7.011231501606707e-10
	4.078949760583902e-10
	4.316988208843957e-01
	0.000000000000000e+00
	0.000000000000000e+00
	8.299566053861477e-01
	2.955750678794110e-11
	5.977871228710928e-11
	1.477875339752406e-11
	1.800000000000000e+00
	1.800000000000000e+00
	1.800000000000000e+00
	4.000000000000002e-01
	1.800000000000000e+00
	-4.078959392472825e-10
	0.000000000000000e+00
	1.799997359399000e+00

 41	4.100000000000002e-01
	1.748243951986668e-08
	5.559005889456752e-10
	0.000000000000000e+00
	1.799996323283355e+00
	3.633491013373075e-02
	4.099999997850520e-01
	8.050096631667292e-01
	9.820152204674914e-10
	5.580874695520927e-10
	4.255961627523249e-01
	0.000000000000000e+00
	0.000000000000000e+00
	8.299564529993799e-01
	3.216763409032478e-11
	6.108375004469406e-11
	1.608381705013418e-11
	1.800000000000000e+00
	1.800000000000000e+00
	1.800000000000000e+00
	4.100000000000002e-01
	1.800000000000000e+00
	-5.580886863754131e-10
	0.000000000000000e+00
	1.799996323714097e+00

 42	4.200000000000002e-01
	2.390093485899475e-08
	7.611591338139282e-10
	0.000000000000000e+00
	1.799994879741228e+00
	3.633548815007823e-02
	4.199999997056854e-01
	8.050096632034177e-01
	1.375451710608039e-09
	7.634888120550143e-10
	4.194730096321525e-01
	0.000000000000000e+00
	0.000000000000000e+00
	8.299562406246014e-01
	3.573713243725678e-11
	6.286846313154641e-11
	1.786856622553979e-11
	1.800000000000000e+00
	1.800000000000000e+00
	1.800000000000000e+00
	4.200000000000002e-01
	1.800000000000000e+00
	-7.634897158936838e-10
	0.000000000000000e+00
	1.799994880330758e+00

 43	4.300000000000002e-01
	3.265056787622640e-08
	1.041664106901021e-09
	0.000000000000000e+00
	1.799992868434896e+00
	3.633627806055184e-02
	4.299999995972234e-01
	8.050096632541289e-01
	1.926241862487403e-09
	1.044189259252794e-09
	4.133287246646807e-01
	0.000000000000000e+00
	0.000000000000000e+00
	8.299559447182649e-01
	4.061506346031023e-11
	6.530737836306542e-11
	2.030753173971718e-11
	1.800000000000000e+00
	1.800000000000000e+00
	1.800000000000000e+00
	4.300000000000002e-01
	1.800000000000000e+00
	-1.044189623655711e-09
	0.000000000000000e+00
	1.799992869241426e+00

 44	4.400000000000002e-01
	4.456302227220406e-08
	1.424677941946289e-09
	0.000000000000000e+00
	1.799990067027965e+00
	3.633735663380859e-02
	4.399999994491248e-01
	8.050096633241892e-01
	2.696837868105175e-09
	1.427468030093333e-09
	4.071626868443819e-01
	0.000000000000000e+00
	0.000000000000000e+00
	8.299555325687206e-01
	4.727537469143188e-11
	6.863746394707221e-11
	2.363768735889735e-11
	1.800000000000000e+00
	1.800000000000000e+00
	1.800000000000000e+00
	4.400000000000002e-01
	1.800000000000000e+00
	-1.427467921644165e-09
	0.000000000000000e+00
	1.799990068130795e+00

 45	4.500000000000002e-01
	6.075796920976707e-08
	1.947150639145536e-09
	0.000000000000000e+00
	1.799986166903079e+00
	3.633882791581548e-02
	4.499999992471020e-01
	8.050096634209274e-01
	3.774172443407918e-09
	1.950304921315777e-09
	4.009742948773968e-01
	0.000000000000000e+00
	0.000000000000000e+00
	8.299549587697879e-01
	5.636033121240546e-11
	7.317984470937386e-11
	2.818016562432132e-11
	1.800000000000000e+00
	1.800000000000000e+00
	1.800000000000000e+00
	4.500000000000002e-01
	1.800000000000000e+00
	-1.950303918363261e-09
	0.000000000000000e+00
	1.799986168410095e+00

 46	4.600000000000002e-01
	8.273776578475181e-08
	2.659051773179668e-09
	0.000000000000000e+00
	1.799980740414450e+00
	3.634083261009077e-02
	4.599999989718336e-01
	8.050096635544063e-01
	5.279013804428998e-09
	2.662702101864090e-09
	3.947629720793098e-01
	0.000000000000000e+00
	0.000000000000000e+00
	8.299541604025075e-01
	6.873832134005919e-11
	7.936870411771198e-11
	3.436916069487541e-11
	1.800000000000000e+00
	1.799999999999999e+00
	1.800000000000000e+00
	4.600000000000002e-01
	1.800000000000000e+00
	-2.662702947020534e-09
	0.000000000000000e+00
	1.799980742472195e+00

 47	4.700000000000003e-01
	1.125104546987365e-07
	3.627785319129707e-09
	0.000000000000000e+00
	1.799973195920142e+00
	3.634356050487907e-02
	4.699999985972566e-01
	8.050096637384198e-01
	7.378818861550322e-09
	3.632108344560306e-09
	3.885281726878512e-01
	0.000000000000000e+00
	0.000000000000000e+00
	8.299530504188314e-01
	8.558037065763023e-11
	8.778954017329373e-11
	4.279018536281515e-11
	1.800000000000000e+00
	1.799999999999999e+00
	1.800000000000000e+00
	4.700000000000003e-01
	1.800000000000000e+00
	-3.632109724094335e-09
	0.000000000000000e+00
	1.799973198727301e+00

 48	4.800000000000003e-01
	1.527479473617435e-07
	4.944003667805955e-09
	0.000000000000000e+00
	1.799962716544456e+00
	3.634726683633584e-02
	4.799999980883188e-01
	8.050096639918328e-01
	1.030524437213205e-08
	4.949240557422275e-09
	3.822693900390553e-01
	0.000000000000000e+00
	0.000000000000000e+00
	8.299515086313884e-01
	1.084607617949596e-10
	9.922947377000372e-11
	5.423038094391773e-11
	1.799999999999999e+00
	1.799999999999999e+00
	1.800000000000000e+00
	4.800000000000003e-01
	1.800000000000000e+00
	-4.949242793372832e-09
	0.000000000000000e+00
	1.799962720369844e+00

 49	4.900000000000003e-01
	2.069870745415722e-07
	6.729210040717833e-09
	0.000000000000000e+00
	1.799948177213576e+00
	3.635229368053153e-02
	4.899999973980391e-01
	8.050096643403805e-01
	1.437787115809822e-08
	6.735687401910097e-09
	3.759861672075646e-01