Title: ** sch_path: /home/designer/icdesign/sch//tp2/tp1_1.sch
Date: Fri May 13 01:03:55  2022
Plotname: DC transfer characteristic
Flags: real
No. Variables: 25
No. Points: 231
Variables:
	0	v(v-sweep)	voltage
	1	@m.xm1.msky130_fd_pr__nfet_01v8[gm]	admittance
	2	i(@m.xm1.msky130_fd_pr__nfet_01v8[id])	current
	3	v(@m.xm1.msky130_fd_pr__nfet_01v8[value])	voltage dims=0
	4	v(@m.xm1.msky130_fd_pr__nfet_01v8[vds])	voltage
	5	v(@m.xm1.msky130_fd_pr__nfet_01v8[vdsat])	voltage
	6	v(@m.xm1.msky130_fd_pr__nfet_01v8[vgs])	voltage
	7	v(@m.xm1.msky130_fd_pr__nfet_01v8[vth])	voltage
	8	@m.xm2.msky130_fd_pr__pfet_01v8[gm]	admittance
	9	i(@m.xm2.msky130_fd_pr__pfet_01v8[id])	current
	10	v(@m.xm2.msky130_fd_pr__pfet_01v8[vdsat])	voltage
	11	v(@m.xm2.msky130_fd_pr__pfet_01v8[vsd])	voltage dims=0
	12	v(@m.xm2.msky130_fd_pr__pfet_01v8[vsg])	voltage dims=0
	13	v(@m.xm2.msky130_fd_pr__pfet_01v8[vth])	voltage
	14	v(m.xm1.msky130_fd_pr__nfet_01v8#body)	voltage
	15	v(m.xm1.msky130_fd_pr__nfet_01v8#dbody)	voltage
	16	v(m.xm1.msky130_fd_pr__nfet_01v8#sbody)	voltage
	17	v(m.xm2.msky130_fd_pr__pfet_01v8#body)	voltage
	18	v(m.xm2.msky130_fd_pr__pfet_01v8#dbody)	voltage
	19	v(m.xm2.msky130_fd_pr__pfet_01v8#sbody)	voltage
	20	v(net1)	voltage
	21	v(net2)	voltage
	22	i(vdd)	current
	23	i(vgs)	current
	24	v(vout)	voltage
Values:
 0	0.000000000000000e+00
	6.533026505276559e-14
	2.077658533913469e-15
	0.000000000000000e+00
	1.799999999350068e+00
	3.613611653071539e-02
	-9.269553413882662e-16
	7.937081943055692e-01
	9.377639785871708e-14
	1.385296770798395e-13
	6.847089396076993e-01
	0.000000000000000e+00
	0.000000000000000e+00
	8.173904041864593e-01
	2.250004971662490e-11
	5.625004726022010e-11
	1.125002485803121e-11
	1.800000000000000e+00
	1.800000000000000e+00
	1.800000000000000e+00
	0.000000000000000e+00
	1.800000000000000e+00
	-1.803002191991254e-12
	0.000000000000000e+00
	1.799999999350874e+00

 1	1.000000000000000e-02
	8.946909867507144e-14
	2.845340692300160e-15
	0.000000000000000e+00
	1.799999991566170e+00
	3.613611653295042e-02
	9.999999999998782e-03
	7.937081943056847e-01
	1.244323738296422e-12
	1.791485922066274e-12
	6.785842057120625e-01
	0.000000000000000e+00
	0.000000000000000e+00
	8.173904031543044e-01
	2.250006173032575e-11
	5.625005307247307e-11
	1.125003086488165e-11
	1.800000000000000e+00
	1.800000000000000e+00
	1.800000000000000e+00
	1.000000000000000e-02
	1.800000000000000e+00
	-1.803002191991254e-12
	0.000000000000000e+00
	1.799999991566975e+00

 2	2.000000000000000e-02
	1.225267729829263e-13
	3.896672334966323e-15
	0.000000000000000e+00
	1.799999991445816e+00
	3.613611653601121e-02
	1.999999999999826e-02
	7.937081943056867e-01
	1.285607620548190e-12
	1.804319443076277e-12
	6.724653302714916e-01
	0.000000000000000e+00
	0.000000000000000e+00
	8.173904031383461e-01
	2.250008333888230e-11
	5.625006387374250e-11
	1.125004166915993e-11
	1.800000000000000e+00
	1.800000000000000e+00
	1.800000000000000e+00
	2.000000000000000e-02
	1.800000000000000e+00
	-1.803890370410954e-12
	0.000000000000000e+00
	1.799999991446622e+00

 3	3.000000000000000e-02
	1.677985118652383e-13
	5.336456012537418e-15
	0.000000000000000e+00
	1.799999991377002e+00
	3.613611654020293e-02
	2.999999999999762e-02
	7.937081943056877e-01
	1.319591652115325e-12
	1.805759858760345e-12
	6.663518518740945e-01
	0.000000000000000e+00
	0.000000000000000e+00
	8.173904031292218e-01
	2.250011002886512e-11
	5.625007721701360e-11
	1.125005501415136e-11
	1.800000000000000e+00
	1.800000000000000e+00
	1.800000000000000e+00
	3.000000000000000e-02
	1.800000000000000e+00
	-1.806554905670055e-12
	0.000000000000000e+00
	1.799999991377810e+00

 4	4.000000000000000e-02
	2.297969495900834e-13
	7.308215161190188e-15
	0.000000000000000e+00
	1.799999991305191e+00
	3.613611654594343e-02
	3.999999999999674e-02
	7.937081943056888e-01
	1.354334651286827e-12
	1.807376924345423e-12
	6.602433004720887e-01
	0.000000000000000e+00
	0.000000000000000e+00
	8.173904031197000e-01
	2.250014658062093e-11
	5.625009549109623e-11
	1.125007329002929e-11
	1.800000000000000e+00
	1.800000000000000e+00
	1.800000000000000e+00
	4.000000000000000e-02
	1.800000000000000e+00
	-1.808331262509455e-12
	0.000000000000000e+00
	1.799999991306001e+00

 5	5.000000000000000e-02
	3.147018570426392e-13
	1.000849920218956e-14
	0.000000000000000e+00
	1.799999991227107e+00
	3.613611655380493e-02
	4.999999999999553e-02
	7.937081943056904e-01
	1.390364782801884e-12
	1.809827399534021e-12
	6.541391980943345e-01
	0.000000000000000e+00
	0.000000000000000e+00
	8.173904031093469e-01
	2.250019663776015e-11
	5.625012051771376e-11
	1.125009831859892e-11
	1.800000000000000e+00
	1.800000000000000e+00
	1.800000000000000e+00
	5.000000000000000e-02
	1.800000000000000e+00
	-1.810107619348855e-12
	0.000000000000000e+00
	1.799999991227919e+00

 6	6.000000000000000e-02
	4.309759785204806e-13
	1.370647304261523e-14
	0.000000000000000e+00
	1.799999991140603e+00
	3.613611656457096e-02
	5.999999999999389e-02
	7.937081943056921e-01
	1.428062867667766e-12
	1.813515655145308e-12
	6.480390590238182e-01
	0.000000000000000e+00
	0.000000000000000e+00
	8.173904030978775e-01
	2.250026519005985e-11
	5.625015479170106e-11
	1.125013259474881e-11
	1.800000000000000e+00
	1.800000000000000e+00
	1.800000000000000e+00
	6.000000000000000e-02
	1.800000000000000e+00
	-1.813660333027656e-12
	0.000000000000000e+00
	1.799999991141418e+00

 7	7.000000000000001e-02
	5.902083177462874e-13
	1.877074272104044e-14
	0.000000000000000e+00
	1.799999991042075e+00
	3.613611657931490e-02
	6.999999999999164e-02
	7.937081943056938e-01
	1.468070951356947e-12
	1.819127710476322e-12
	6.419423899858129e-01
	0.000000000000000e+00
	0.000000000000000e+00
	8.173904030848143e-01
	2.250035907072774e-11
	5.625020172957186e-11
	1.125017953508281e-11
	1.800000000000000e+00
	1.800000000000000e+00
	1.800000000000000e+00
	7.000000000000001e-02
	1.800000000000000e+00
	-1.818989403545856e-12
	0.000000000000000e+00
	1.799999991042895e+00

 8	8.000000000000000e-02
	8.082688539951823e-13
	2.570608964611513e-14
	0.000000000000000e+00
	1.799999990934516e+00
	3.613611659950613e-02
	7.999999999998854e-02
	7.937081943056961e-01
	1.509968955722681e-12
	1.825995116224856e-12
	6.358486903496691e-01
	0.000000000000000e+00
	0.000000000000000e+00
	8.173904030705545e-01
	2.250048763748563e-11
	5.625026601026192e-11
	1.125024381846183e-11
	1.800000000000000e+00
	1.800000000000000e+00
	1.800000000000000e+00
	8.000000000000000e-02
	1.800000000000000e+00
	-1.826983009323158e-12
	0.000000000000000e+00
	1.799999990935342e+00

 9	9.000000000000000e-02
	1.106889663163561e-12
	3.520377256053354e-14
	0.000000000000000e+00
	1.799999990812214e+00
	3.613611662715723e-02
	8.999999999998429e-02
	7.937081943056986e-01
	1.554776382492929e-12
	1.835207054427256e-12
	6.297574523469908e-01
	0.000000000000000e+00
	0.000000000000000e+00
	8.173904030543402e-01
	2.250066370488047e-11
	5.625035404090189e-11
	1.125033185215936e-11
	1.800000000000000e+00
	1.800000000000000e+00
	1.800000000000000e+00
	9.000000000000000e-02
	1.800000000000000e+00
	-1.835864793520159e-12
	0.000000000000000e+00
	1.799999990813049e+00

 10	9.999999999999999e-02
	1.515829842406853e-12
	4.821040714441478e-14
	0.000000000000000e+00
	1.799999990665927e+00
	3.613611666502417e-02
	9.999999999997848e-02
	7.937081943057019e-01
	1.604178139548896e-12
	1.848511605476200e-12
	6.236681613030822e-01
	0.000000000000000e+00
	0.000000000000000e+00
	8.173904030349468e-01
	2.250090482124549e-11
	5.625047459542737e-11
	1.125045241034201e-11
	1.800000000000000e+00
	1.800000000000000e+00
	1.800000000000000e+00
	9.999999999999999e-02
	1.800000000000000e+00
	-1.848299291395961e-12
	0.000000000000000e+00
	1.799999990666773e+00

 11	1.100000000000000e-01
	2.075839701022062e-12
	6.602228233063636e-14
	0.000000000000000e+00
	1.799999990492555e+00
	3.613611671688081e-02
	1.099999999999705e-01
	7.937081943057064e-01
	1.658880971457498e-12
	1.866384301227265e-12
	6.175802958830369e-01
	0.000000000000000e+00
	0.000000000000000e+00
	8.173904030119638e-01
	2.250123501726564e-11
	5.625063968910333e-11
	1.125061750835228e-11
	1.800000000000000e+00
	1.800000000000000e+00
	1.800000000000000e+00
	1.100000000000000e-01
	1.800000000000000e+00
	-1.866951038209663e-12
	0.000000000000000e+00
	1.799999990493418e+00

 12	1.200000000000000e-01
	2.842719141520037e-12
	9.041450359182266e-14
	0.000000000000000e+00
	1.799999990280316e+00
	3.613611678789515e-02
	1.199999999999596e-01
	7.937081943057113e-01
	1.721158047646500e-12
	1.890965403322515e-12
	6.114933283548176e-01
	0.000000000000000e+00
	0.000000000000000e+00
	8.173904029838293e-01
	2.250168719986223e-11
	5.625086577509593e-11
	1.125084359965084e-11
	1.800000000000000e+00
	1.800000000000000e+00
	1.800000000000000e+00
	1.200000000000000e-01
	1.800000000000000e+00
	-1.890931855541567e-12
	0.000000000000000e+00
	1.799999990281200e+00

 13	1.300000000000000e-01
	3.892873886037465e-12
	1.238178179961598e-13
	0.000000000000000e+00
	1.799999990017515e+00
	3.613611688514405e-02
	1.299999999999447e-01
	7.937081943057180e-01
	1.793382630489420e-12
	1.924289684486813e-12
	6.054067248658314e-01
	0.000000000000000e+00
	0.000000000000000e+00
	8.173904029489929e-01
	2.250230643030164e-11
	5.625117538374598e-11
	1.125115321487091e-11
	1.800000000000000e+00
	1.800000000000000e+00
	1.800000000000000e+00
	1.300000000000000e-01
	1.800000000000000e+00
	-1.924682635490171e-12
	0.000000000000000e+00
	1.799999990018429e+00

 14	1.400000000000000e-01
	5.330921964083126e-12
	1.695607173969625e-13
	0.000000000000000e+00
	1.799999989679265e+00
	3.613611701831773e-02
	1.399999999999243e-01
	7.937081943057270e-01
	1.880444082385148e-12
	1.970821206391983e-12
	5.993199457365845e-01
	0.000000000000000e+00
	0.000000000000000e+00
	8.173904029041564e-01
	2.250315441215981e-11
	5.625159936621930e-11
	1.125157720580050e-11
	1.800000000000000e+00
	1.800000000000000e+00
	1.800000000000000e+00
	1.400000000000000e-01
	1.800000000000000e+00
	-1.970867913314578e-12
	0.000000000000000e+00
	1.799999989680220e+00

 15	1.500000000000000e-01
	7.300106371753356e-12
	2.322009047282637e-13
	0.000000000000000e+00
	1.799999989255549e+00
	3.613611720068548e-02
	1.499999999998964e-01
	7.937081943057392e-01
	1.984725464965920e-12
	2.032021119321258e-12
	5.932324457666679e-01
	0.000000000000000e+00
	0.000000000000000e+00
	8.173904028479921e-01
	2.250431563642551e-11
	5.625217996775993e-11
	1.125215781793403e-11
	1.800000000000000e+00
	1.800000000000000e+00
	1.800000000000000e+00
	1.500000000000000e-01
	1.800000000000000e+00
	-2.032152224273887e-12
	0.000000000000000e+00
	1.799999989256559e+00

 16	1.600000000000000e-01
	9.996548121875259e-12
	3.179790865329331e-13
	0.000000000000000e+00
	1.799999988686058e+00
	3.613611745041607e-02
	1.599999999998581e-01
	7.937081943057549e-01
	2.118110761715335e-12
	2.118683543666701e-12
	5.871436745635803e-01
	0.000000000000000e+00
	0.000000000000000e+00
	8.173904027725071e-01
	2.250590579313052e-11
	5.625297503187609e-11
	1.125295289628747e-11
	1.800000000000000e+00
	1.800000000000000e+00
	1.800000000000000e+00
	1.600000000000000e-01
	1.800000000000000e+00
	-2.119193709404499e-12
	0.000000000000000e+00
	1.799999988687145e+00

 17	1.700000000000000e-01
	1.368875445198349e-11
	4.354402008158955e-13
	0.000000000000000e+00
	1.799999987939613e+00
	3.613611779238683e-02
	1.699999999998058e-01
	7.937081943057760e-01
	2.287534411896511e-12
	2.235735344982648e-12
	5.810530768760263e-01
	0.000000000000000e+00
	0.000000000000000e+00
	8.173904026735677e-01
	2.250808328872010e-11
	5.625406376101105e-11
	1.125404164408355e-11
	1.800000000000000e+00
	1.800000000000000e+00
	1.800000000000000e+00
	1.700000000000000e-01
	1.800000000000000e+00
	-2.236433260804915e-12
	0.000000000000000e+00
	1.799999987940805e+00

 18	1.800000000000000e-01
	1.874431715132061e-11
	5.962838026428103e-13
	0.000000000000000e+00
	1.799999986937432e+00
	3.613611826065936e-02
	1.799999999997340e-01
	7.937081943058051e-01
	2.509348263161678e-12
	2.396578943202991e-12
	5.749600929551731e-01
	0.000000000000000e+00
	0.000000000000000e+00
	8.173904025407329e-01
	2.251106500961232e-11
	5.625555459640438e-11
	1.125553250453141e-11
	1.800000000000000e+00
	1.800000000000000e+00
	1.800000000000000e+00
	1.800000000000000e-01
	1.800000000000000e+00
	-2.397193554770638e-12
	0.000000000000000e+00
	1.799999986938767e+00

 19	1.900000000000000e-01
	2.566644684395368e-11
	8.165280493598880e-13
	0.000000000000000e+00
	1.799999985577369e+00
	3.613611890186817e-02
	1.899999999996357e-01
	7.937081943058444e-01
	2.805162984332840e-12
	2.618223146419099e-12
	5.688641589239237e-01
	0.000000000000000e+00
	0.000000000000000e+00
	8.173904023604632e-01
	2.251514790055510e-11
	5.625759600787662e-11
	1.125757395000521e-11
	1.800000000000000e+00
	1.800000000000000e+00
	1.800000000000000e+00
	1.900000000000000e-01
	1.800000000000000e+00
	-2.619238159695669e-12
	0.000000000000000e+00
	1.799999985578902e+00

 20	2.000000000000000e-01
	3.514396014748131e-11
	1.118102789254087e-12
	0.000000000000000e+00
	1.799999983739824e+00
	3.613611977985880e-02
	1.999999999995012e-01
	7.937081943058981e-01
	3.200931705864729e-12
	2.919977112851585e-12
	5.627647071635807e-01
	0.000000000000000e+00
	0.000000000000000e+00
	8.173904021169061e-01
	2.252073849750324e-11
	5.626039126041536e-11
	1.126036924848257e-11
	1.800000000000000e+00
	1.800000000000000e+00
	1.800000000000000e+00
	2.000000000000000e-01
	1.800000000000000e+00
	-2.920330643974012e-12
	0.000000000000000e+00
	1.799999983741626e+00

 21	2.100000000000000e-01
	4.811966259048606e-11
	1.531029712967412e-12
	0.000000000000000e+00
	1.799999981237474e+00
	3.613612098203482e-02
	2.099999999993170e-01
	7.937081943059711e-01
	3.737122678087382e-12
	3.332180992963650e-12
	5.566611667210343e-01
	0.000000000000000e+00
	0.000000000000000e+00
	8.173904017852338e-01
	2.252839334279311e-11
	5.626421862050605e-11
	1.126419667113202e-11
	1.800000000000000e+00
	1.800000000000000e+00
	1.800000000000000e+00
	2.100000000000000e-01
	1.800000000000000e+00
	-3.333333609134570e-12
	0.000000000000000e+00
	1.799999981239643e+00

 22	2.200000000000001e-01
	6.588387980024551e-11
	2.096405536298083e-12
	0.000000000000000e+00
	1.799999977798517e+00
	3.613612262804354e-02
	2.199999999990647e-01
	7.937081943060712e-01
	4.472818662740795e-12
	3.898444628500882e-12
	5.505529637295800e-01
	0.000000000000000e+00
	0.000000000000000e+00
	8.173904013294185e-01
	2.253887428736817e-11
	5.626945900682581e-11
	1.126943714342572e-11
	1.800000000000000e+00
	1.800000000000000e+00
	1.800000000000000e+00
	2.200000000000001e-01
	1.800000000000000e+00
	-3.898215084063850e-12
	0.000000000000000e+00
	1.799999977801191e+00

 23	2.300000000000001e-01
	9.020235770532433e-11
	2.870483412499937e-12
	0.000000000000000e+00
	1.799999973078097e+00
	3.613612488165761e-02
	2.299999999987194e-01
	7.937081943062090e-01
	5.484254772418094e-12
	4.672767154988257e-12
	5.444395218438178e-01
	0.000000000000000e+00
	0.000000000000000e+00
	8.173904007037526e-01
	2.255322415237110e-11
	5.627663382132525e-11
	1.127661207593564e-11
	1.800000000000000e+00
	1.800000000000000e+00
	1.800000000000000e+00
	2.300000000000001e-01
	1.800000000000000e+00
	-4.673594844462059e-12
	0.000000000000000e+00
	1.799999973081463e+00

 24	2.400000000000001e-01
	1.234911166786102e-10
	3.930255934386507e-12
	0.000000000000000e+00
	1.799999966570793e+00
	3.613612796702956e-02
	2.399999999982466e-01
	7.937081943063977e-01
	6.883523505990814e-12
	5.733743315340512e-12
	5.383202626990768e-01
	0.000000000000000e+00
	0.000000000000000e+00
	8.173903998412412e-01
	2.257287022595880e-11
	5.628645669544807e-11
	1.128643511274107e-11
	1.800000000000000e+00
	1.800000000000000e+00
	1.800000000000000e+00
	2.400000000000001e-01
	1.800000000000000e+00
	-5.734079877584008e-12
	0.000000000000000e+00
	1.799999966575105e+00

 25	2.500000000000001e-01
	1.690554261820914e-10
	5.381090668675660e-12
	0.000000000000000e+00
	1.799999957598619e+00
	3.613613219092165e-02
	2.499999999975993e-01
	7.937081943066571e-01
	8.822642782031206e-12
	7.184861468869094e-12
	5.321946063816592e-01
	0.000000000000000e+00
	0.000000000000000e+00
	8.173903986520200e-01
	2.259976581085227e-11
	5.629990426360630e-11
	1.129988290520365e-11
	1.800000000000000e+00
	1.800000000000000e+00
	1.800000000000000e+00
	2.500000000000001e-01
	1.800000000000000e+00
	-7.184475236954313e-12
	0.000000000000000e+00
	1.799999957604225e+00

 26	2.600000000000001e-01
	2.314163000569845e-10
	7.367170403102628e-12
	0.000000000000000e+00
	1.799999945184111e+00
	3.613613797310064e-02
	2.599999999967132e-01
	7.937081943070138e-01
	1.152181861830655e-11
	9.173839285381254e-12
	5.260619719255523e-01
	0.000000000000000e+00
	0.000000000000000e+00
	8.173903970065264e-01
	2.263658376395187e-11
	5.631831292981509e-11
	1.131829188177514e-11
	1.800000000000000e+00
	1.800000000000000e+00
	1.800000000000000e+00
	2.600000000000001e-01
	1.800000000000000e+00
	-9.174883075502294e-12
	0.000000000000000e+00
	1.799999945191491e+00

 27	2.700000000000001e-01
	3.167563843008001e-10
	1.008576448948131e-11
	0.000000000000000e+00
	1.799999928025220e+00
	3.613614588788715e-02
	2.699999999955003e-01
	7.937081943075055e-01
	1.527753947445761e-11
	1.189347523647423e-11
	5.199217778185987e-01
	0.000000000000000e+00
	0.000000000000000e+00
	8.173903947321736e-01
	2.268698105756939e-11
	5.634351114768126e-11
	1.134349052861360e-11
	1.800000000000000e+00
	1.800000000000000e+00
	1.800000000000000e+00
	2.700000000000001e-01
	1.800000000000000e+00
	-1.189359721820438e-11
	0.000000000000000e+00
	1.799999928035026e+00

 28	2.800000000000001e-01
	4.335286070169737e-10
	1.380673095474529e-11
	0.000000000000000e+00
	1.799999904252351e+00
	3.613615672093268e-02
	2.799999999938402e-01
	7.937081943081816e-01
	2.051743056601589e-11
	1.561763075312492e-11
	5.137734425445651e-01
	0.000000000000000e+00
	0.000000000000000e+00
	8.173903915811452e-01
	2.275596030454088e-11
	5.637800017688593e-11
	1.137798015213998e-11
	1.800000000000000e+00
	1.800000000000000e+00
	1.800000000000000e+00
	2.800000000000001e-01
	1.800000000000000e+00
	-1.561861751042670e-11
	0.000000000000000e+00
	1.799999904265478e+00

 29	2.900000000000001e-01
	5.932865411082017e-10
	1.889915672623231e-11
	0.000000000000000e+00
	1.799999871309667e+00
	3.613617154677881e-02
	2.899999999915682e-01
	7.937081943091135e-01
	2.783084990405631e-11
	2.071398384969688e-11
	5.076163851341651e-01
	0.000000000000000e+00
	0.000000000000000e+00
	8.173903872146613e-01
	2.285036360871050e-11
	5.642520100545926e-11
	1.142518180428042e-11
	1.800000000000000e+00
	1.800000000000000e+00
	1.800000000000000e+00
	2.900000000000001e-01
	1.800000000000000e+00
	-2.071409710424632e-11
	0.000000000000000e+00
	1.799999871327340e+00

 30	3.000000000000001e-01
	8.118165046370235e-10
	2.586773290824602e-11
	0.000000000000000e+00
	1.799999825637217e+00
	3.613619183475800e-02
	2.999999999884591e-01
	7.937081943103982e-01
	3.804385552026254e-11
	2.768671138243022e-11
	5.014500257522482e-01
	0.000000000000000e+00
	0.000000000000000e+00
	8.173903811608411e-01
	2.297954687585737e-11
	5.648979149729755e-11
	1.148977343792997e-11
	1.800000000000000e+00
	1.800000000000000e+00
	1.800000000000000e+00
	3.000000000000001e-01
	1.800000000000000e+00
	-2.768718587731200e-11
	0.000000000000000e+00
	1.799999825661110e+00

 31	3.100000000000001e-01
	1.110679866928394e-09
	3.540239743842253e-11
	0.000000000000000e+00
	1.799999762267582e+00
	3.613621959352016e-02
	3.099999999842052e-01
	7.937081943121685e-01
	5.231598319203233e-11
	3.722820321346023e-11
	4.952737863132276e-01
	0.000000000000000e+00
	0.000000000000000e+00
	8.173903727612370e-01
	2.315630006356983e-11
	5.657816650701705e-11
	1.157815003189034e-11
	1.800000000000000e+00
	1.800000000000000e+00
	1.800000000000000e+00
	3.100000000000001e-01
	1.800000000000000e+00
	-3.722888664015045e-11
	0.000000000000000e+00
	1.799999762299986e+00

 32	3.200000000000001e-01
	1.519312317716732e-09
	4.844604413847219e-11
	0.000000000000000e+00
	1.799999674311578e+00
	3.613625756815657e-02
	3.199999999783857e-01
	7.937081943146092e-01
	7.226519365634304e-11
	5.028230708989018e-11
	4.890870911283226e-01
	0.000000000000000e+00
	0.000000000000000e+00
	8.173903611026609e-01
	2.339810232388003e-11
	5.669906543841453e-11
	1.169905116218790e-11
	1.800000000000000e+00
	1.800000000000000e+00
	1.800000000000000e+00
	3.200000000000001e-01
	1.800000000000000e+00
	-5.028333305290289e-11
	0.000000000000000e+00
	1.799999674355627e+00

 33	3.300000000000001e-01
	2.077878243123913e-09
	6.628680914189587e-11
	0.000000000000000e+00
	1.799999552209155e+00
	3.613630950887602e-02
	3.299999999704260e-01
	7.937081943179741e-01
	1.001495665510217e-10
	6.813608927517016e-11
	4.828893675967793e-01
	0.000000000000000e+00
	0.000000000000000e+00
	8.173903449178813e-01
	2.372883271829566e-11
	5.686442758325662e-11
	1.186441635959058e-11
	1.800000000000000e+00
	1.800000000000000e+00
	1.800000000000000e+00
	3.300000000000001e-01
	1.800000000000000e+00
	-6.813571928887541e-11
	0.000000000000000e+00
	1.799999552269129e+00

 34	3.400000000000001e-01
	2.841147066318837e-09
	9.068375413508413e-11
	0.000000000000000e+00
	1.799999382647480e+00
	3.613638053690869e-02
	3.399999999595412e-01
	7.937081943226137e-01
	1.391299918018642e-10
	9.255095498306630e-11
	4.766800469517125e-01
	0.000000000000000e+00
	0.000000000000000e+00
	8.173903224422069e-01
	2.418109996163908e-11
	5.709055696615292e-11
	1.209054998152877e-11
	1.800000000000000e+00
	1.800000000000000e+00
	1.800000000000000e+00
	3.400000000000001e-01
	1.800000000000000e+00
	-9.255174404643185e-11
	0.000000000000000e+00
	1.799999382729231e+00

 35	3.500000000000001e-01
	3.883749899235444e-09
	1.240378701673168e-10
	0.000000000000000e+00
	1.799999147133263e+00
	3.613647764235133e-02
	3.499999999446602e-01
	7.937081943290115e-01
	1.936196965357123e-10
	1.259295460539151e-10
	4.704585650647388e-01
	0.000000000000000e+00
	0.000000000000000e+00
	8.173902912242327e-01
	2.479941216757148e-11
	5.739970718162800e-11
	1.239970608485928e-11
	1.800000000000000e+00
	1.800000000000000e+00
	1.800000000000000e+00
	3.500000000000001e-01
	1.800000000000000e+00
	-1.259294890587626e-10
	0.000000000000000e+00
	1.799999147244787e+00

 36	3.600000000000002e-01
	5.307296034615057e-09
	1.696244869166701e-10
	0.000000000000000e+00
	1.799998819959910e+00
	3.613661036077796e-02
	3.599999999243215e-01
	7.937081943378346e-01
	2.697823745331620e-10
	1.715502990083101e-10
	4.642243633348563e-01
	0.000000000000000e+00
	0.000000000000000e+00
	8.173902478563616e-01
	2.564448464127272e-11
	5.782223523964269e-11
	1.282224232220782e-11
	1.800000000000000e+00
	1.800000000000000e+00
	1.800000000000000e+00
	3.600000000000002e-01
	1.800000000000000e+00
	-1.715507735866595e-10
	0.000000000000000e+00
	1.799998820112127e+00

 37	3.700000000000002e-01
	7.249988331709985e-09
	2.319087288518690e-10
	0.000000000000000e+00
	1.799998365422323e+00
	3.613679169161801e-02
	3.699999998965332e-01
	7.937081943500004e-01
	3.762174247692478e-10
	2.338806159655384e-10
	4.579768896787879e-01
	0.000000000000000e+00
	0.000000000000000e+00
	8.173901876055938e-01
	2.679908665660914e-11
	5.839952488455150e-11
	1.339954333055633e-11
	1.800000000000000e+00
	1.800000000000000e+00
	1.800000000000000e+00
	3.700000000000002e-01
	1.800000000000000e+00
	-2.338813587243749e-10
	0.000000000000000e+00
	1.799998365630137e+00

 38	3.800000000000002e-01
	9.899584977519244e-09
	3.169730461140060e-10
	0.000000000000000e+00
	1.799997733901352e+00
	3.613703934280129e-02
	3.799999998585814e-01
	7.937081943667760e-01
	5.249249213468064e-10
	3.190091656201575e-10
	4.517155996605803e-01
	0.000000000000000e+00
	0.000000000000000e+00
	8.173901038944646e-01
	2.837596485778293e-11
	5.918794819804320e-11
	1.418798243207234e-11
	1.800000000000000e+00
	1.800000000000000e+00
	1.800000000000000e+00
	3.800000000000002e-01
	1.800000000000000e+00
	-3.190097075389531e-10
	0.000000000000000e+00
	1.799997734185097e+00

 39	3.900000000000002e-01
	1.351082496686780e-08
	4.330956140850387e-10
	0.000000000000000e+00
	1.799996856546042e+00
	3.613737741459380e-02
	3.899999998067729e-01
	7.937081943899024e-01
	7.326211006587569e-10
	4.352158743542795e-10
	4.454399577909947e-01
	0.000000000000000e+00
	0.000000000000000e+00
	8.173899875961064e-01
	3.052856155949800e-11
	6.026422461628630e-11
	1.526428078419822e-11
	1.800000000000000e+00
	1.800000000000000e+00
	1.800000000000000e+00
	3.900000000000002e-01
	1.800000000000000e+00
	-4.352163074372584e-10
	0.000000000000000e+00
	1.799996856933443e+00

 40	4.000000000000002e-01
	1.842878016343140e-08
	5.915312251744793e-10
	0.000000000000000e+00
	1.799995637706416e+00
	3.613783867288568e-02
	3.999999997360862e-01
	7.937081944217798e-01
	1.022610895535026e-09
	5.937710643008574e-10
	4.391494390778948e-01
	0.000000000000000e+00
	0.000000000000000e+00
	8.173898260310954e-01
	3.346548325695266e-11
	6.173265499575343e-11
	1.673274163465606e-11
	1.800000000000000e+00
	1.800000000000000e+00
	1.800000000000000e+00
	4.000000000000002e-01
	1.800000000000000e+00
	-5.937712543868656e-10
	0.000000000000000e+00
	1.799995638235243e+00

 41	4.100000000000002e-01
	2.512003312368835e-08
	8.075630209845013e-10
	0.000000000000000e+00
	1.799993944844569e+00
	3.613846761085484e-02
	4.099999996397029e-01
	7.937081944657047e-01
	1.427294588853730e-09
	8.099619425529160e-10
	4.328435308627478e-01
	0.000000000000000e+00
	0.000000000000000e+00
	8.173896016300087e-01
	3.746998327591108e-11
	6.373486268604602e-11
	1.873499164649487e-11
	1.800000000000000e+00
	1.800000000000000e+00
	1.800000000000000e+00
	4.100000000000002e-01
	1.800000000000000e+00
	-8.099618753476534e-10
	0.000000000000000e+00
	1.799993945566234e+00

 42	4.200000000000002e-01
	3.421412129596157e-08
	1.101915011692610e-09
	0.000000000000000e+00
	1.799991594180963e+00
	3.613932456076255e-02
	4.199999995083766e-01
	7.937081945262076e-01
	1.991732609879853e-09
	1.104532173864316e-09
	4.265217351066741e-01
	0.000000000000000e+00
	0.000000000000000e+00
	8.173892900305981e-01
	4.292612011838329e-11
	6.646287234390693e-11
	2.146306007094603e-11
	1.800000000000000e+00
	1.800000000000000e+00
	1.800000000000000e+00
	4.200000000000002e-01
	1.800000000000000e+00
	-1.104533353668558e-09
	0.000000000000000e+00
	1.799991595165378e+00

 43	4.300000000000002e-01
	4.655834521344727e-08
	1.502642909242147e-09
	0.000000000000000e+00
	1.799988331332646e+00
	3.614049119784089e-02
	4.299999993295903e-01
	7.937081946095067e-01
	2.778465692146353e-09
	1.505557510841272e-09
	4.201835712088467e-01
	0.000000000000000e+00
	0.000000000000000e+00
	8.173888575110395e-01
	5.035375937918346e-11
	7.017661040747588e-11
	2.517687970572306e-11
	1.800000000000000e+00
	1.800000000000000e+00
	1.800000000000000e+00
	4.300000000000002e-01
	1.800000000000000e+00
	-1.505558344661040e-09
	0.000000000000000e+00
	1.799988332674766e+00

 44	4.400000000000002e-01
	6.328981216548108e-08
	2.047655527849992e-09
	0.000000000000000e+00
	1.799983804549810e+00
	3.614207787917734e-02
	4.399999990864308e-01
	7.937081947241201e-01
	3.874180614014365e-09
	2.050974219880183e-09
	4.138285795862510e-01
	0.000000000000000e+00
	0.000000000000000e+00
	8.173882574419415e-01
	6.045522152744212e-11
	7.522722831798706e-11
	3.022761078580531e-11
	1.800000000000000e+00
	1.799999999999999e+00
	1.800000000000000e+00
	4.400000000000002e-01
	1.800000000000000e+00
	-2.050974501344172e-09
	0.000000000000000e+00
	1.799983806378430e+00

 45	4.500000000000002e-01
	8.592946173685387e-08
	2.788061980072780e-09
	0.000000000000000e+00
	1.799977528166971e+00
	3.614423338533307e-02
	4.499999987560956e-01
	7.937081948817049e-01
	5.398819082026645e-09
	2.791928791836940e-09
	4.074563262504957e-01
	0.000000000000000e+00
	0.000000000000000e+00
	8.173874254410762e-01
	7.417715749312097e-11
	8.208803939934236e-11
	3.708857877673185e-11
	1.800000000000000e+00
	1.799999999999999e+00
	1.800000000000000e+00
	4.500000000000002e-01
	1.800000000000000e+00
	-2.791929354373224e-09
	0.000000000000000e+00
	1.799977530656505e+00

 46	4.600000000000002e-01
	1.165037506231593e-07
	3.792591918311105e-09
	0.000000000000000e+00
	1.799968832794637e+00
	3.614715778339438e-02
	4.599999983079208e-01
	7.937081950981769e-01
	7.517993738498329e-09
	3.797202731801180e-09
	4.010664087199687e-01
	0.000000000000000e+00
	0.000000000000000e+00
	8.173862727702601e-01
	9.279216719840145e-11
	9.139532687864595e-11
	4.639608364034412e-11
	1.800000000000000e+00
	1.799999999999999e+00
	1.800000000000000e+00
	4.600000000000002e-01
	1.800000000000000e+00
	-3.797203440569774e-09
	0.000000000000000e+00
	1.799968836180853e+00

 47	4.700000000000003e-01
	1.577005711134316e-07
	5.153397268409646e-09
	0.000000000000000e+00
	1.799956797778211e+00
	3.615111930746607e-02
	4.699999977007923e-01
	7.937081953952193e-01
	1.045982187324100e-08
	5.159016281272917e-09
	3.946584637033745e-01
	0.000000000000000e+00
	0.000000000000000e+00
	8.173846773813153e-01
	1.180057541163441e-10
	1.040018194770697e-10
	5.900287711417896e-11
	1.799999999999999e+00
	1.799999999999998e+00
	1.800000000000000e+00
	4.700000000000003e-01
	1.800000000000000e+00
	-5.159018101608126e-09
	0.000000000000000e+00
	1.799956802379135e+00

 48	4.800000000000003e-01
	2.130666846855584e-07
	6.993613168142025e-09
	0.000000000000000e+00
	1.799940160004475e+00
	3.615647635280794e-02
	4.799999968797729e-01
	7.937081958022961e-01
	1.453764042136958e-08
	7.000594489366993e-09
	3.882321771303018e-01
	0.000000000000000e+00
	0.000000000000000e+00
	8.173824718263040e-01
	1.520953912066703e-10
	1.210462220979888e-10
	7.604769567944209e-11
	1.799999999999999e+00
	1.799999999999998e+00
	1.800000000000000e+00
	4.800000000000003e-01
	1.800000000000000e+00
	-7.000598323259055e-09
	0.000000000000000e+00
	1.799940166248045e+00

 49	4.900000000000003e-01
	2.872542248026164e-07
	9.477130034388809e-09
	0.000000000000000e+00
	1.799917191495343e+00
	3.616370589339126e-02
	4.899999957717422e-01
	7.937081963593170e-01
	2.018046313863052e-08
	9.485947790142667e-09
	3.817872972649520e-01