Title: ** sch_path: /home/designer/icdesign/sch//tp2/tp1_1.sch
Date: Fri May 13 01:25:11  2022
Plotname: DC transfer characteristic
Flags: real
No. Variables: 2
No. Points: 231
Variables:
	0	v(v-sweep)	voltage
	1	i(@m.xm1.msky130_fd_pr__nfet_01v8[id])	current
Values:
 0	0.000000000000000e+00
	9.179900363127956e-16

 1	1.000000000000000e-02
	1.259105310683578e-15

 2	2.000000000000000e-02
	1.726973680154963e-15

 3	3.000000000000000e-02
	2.368693605426350e-15

 4	4.000000000000000e-02
	3.248863664851739e-15

 5	5.000000000000000e-02
	4.456084614874186e-15

 6	6.000000000000000e-02
	6.111877063932364e-15

 7	7.000000000000001e-02
	8.382912053747451e-15

 8	8.000000000000000e-02
	1.149778509197278e-14

 9	9.000000000000000e-02
	1.577002113190138e-14

 10	9.999999999999999e-02
	2.162962456158499e-14

 11	1.100000000000000e-01
	2.966634735299186e-14

 12	1.200000000000000e-01
	4.068902637158311e-14

 13	1.300000000000000e-01
	5.580695558260482e-14

 14	1.400000000000000e-01
	7.654147243014535e-14

 15	1.500000000000000e-01
	1.049789717302466e-13

 16	1.600000000000000e-01
	1.439807187172432e-13

 17	1.700000000000000e-01
	1.974705312530206e-13

 18	1.800000000000000e-01
	2.708292087920387e-13

 19	1.900000000000000e-01
	3.714352812758282e-13

 20	2.000000000000000e-01
	5.094062999222454e-13

 21	2.100000000000000e-01
	6.986149499584552e-13

 22	2.200000000000001e-01
	9.580817222453747e-13

 23	2.300000000000001e-01
	1.313883452881260e-12

 24	2.400000000000001e-01
	1.801768433156720e-12

 25	2.500000000000001e-01
	2.470739057790528e-12

 26	2.600000000000001e-01
	3.387958994802136e-12

 27	2.700000000000001e-01
	4.645472977128169e-12

 28	2.800000000000001e-01
	6.369406231379443e-12

 29	2.900000000000001e-01
	8.732554479947180e-12

 30	3.000000000000001e-01
	1.197160765203461e-11

 31	3.100000000000001e-01
	1.641070230867820e-11

 32	3.200000000000001e-01
	2.249361155053841e-11

 33	3.300000000000001e-01
	3.082771342242301e-11

 34	3.400000000000001e-01
	4.224400506464520e-11

 35	3.500000000000001e-01
	5.787895035195458e-11

 36	3.600000000000002e-01
	7.928599578720455e-11

 37	3.700000000000002e-01
	1.085873362327791e-10

 38	3.800000000000002e-01
	1.486801835043877e-10

 39	3.900000000000002e-01
	2.035166753352637e-10

 40	4.000000000000002e-01
	2.784830246762064e-10

 41	4.100000000000002e-01
	3.809120027834147e-10

 42	4.200000000000002e-01
	5.207739238600957e-10

 43	4.300000000000002e-01
	7.116055994075510e-10

 44	4.400000000000002e-01
	9.717549809044336e-10

 45	4.500000000000002e-01
	1.326042165779505e-09

 46	4.600000000000002e-01
	1.807965799687458e-09

 47	4.700000000000003e-01
	2.462618141995871e-09

 48	4.800000000000003e-01
	3.350512164683655e-09

 49	4.900000000000003e-01
	4.552569157724218e-09

 50	5.000000000000002e-01
	6.176563145186521e-09

 51	5.100000000000002e-01
	8.365364630021739e-09

 52	5.200000000000002e-01
	1.130736357658672e-08

 53	5.300000000000002e-01
	1.524946932278916e-08

 54	5.400000000000003e-01
	2.051306849405535e-08

 55	5.500000000000003e-01
	2.751325250623800e-08

 56	5.600000000000003e-01
	3.678148336590703e-08

 57	5.700000000000003e-01
	4.899163114553138e-08

 58	5.800000000000003e-01
	6.498897681376098e-08

 59	5.900000000000003e-01
	8.582133267261805e-08

 60	6.000000000000003e-01
	1.127709142872469e-07

 61	6.100000000000003e-01
	1.473850535110264e-07

 62	6.200000000000003e-01
	1.915033461213266e-07

 63	6.300000000000003e-01
	2.472784612364244e-07

 64	6.400000000000003e-01
	3.171876640670619e-07

 65	6.500000000000004e-01
	4.040321212506449e-07

 66	6.600000000000004e-01
	5.109211780508344e-07

 67	6.700000000000004e-01
	6.412388100047250e-07

 68	6.800000000000004e-01
	7.985890228069746e-07

 69	6.900000000000004e-01
	9.867156165152678e-07

 70	7.000000000000004e-01
	1.209388684188441e-06

 71	7.100000000000004e-01
	1.470244001369253e-06

 72	7.200000000000004e-01
	1.772548498162602e-06

 73	7.300000000000004e-01
	2.118835186740258e-06

 74	7.400000000000004e-01
	2.510271791066125e-06

 75	7.500000000000004e-01
	2.945375492846002e-06

 76	7.600000000000005e-01
	3.416663448977622e-06

 77	7.700000000000005e-01
	3.894376642621487e-06

 78	7.800000000000005e-01
	4.259748581547991e-06

 79	7.900000000000005e-01
	4.463886723120263e-06

 80	8.000000000000005e-01
	4.592637435660031e-06

 81	8.100000000000005e-01
	4.668767922755022e-06

 82	8.200000000000005e-01
	4.699622744276529e-06

 83	8.300000000000005e-01
	4.691035374775149e-06

 84	8.400000000000005e-01
	4.646699827876638e-06

 85	8.500000000000005e-01
	4.566326471522836e-06

 86	8.600000000000005e-01
	4.436572371288172e-06

 87	8.700000000000006e-01
	4.206986490030594e-06

 88	8.800000000000006e-01
	3.906059536911100e-06

 89	8.900000000000006e-01
	3.594215879791948e-06

 90	9.000000000000006e-01
	3.289858733736516e-06

 91	9.100000000000006e-01
	2.997193670129622e-06

 92	9.200000000000006e-01
	2.717476229916220e-06

 93	9.300000000000006e-01
	2.455283166672541e-06

 94	9.400000000000006e-01
	2.208862342588527e-06

 95	9.500000000000006e-01
	1.978640157785135e-06

 96	9.600000000000006e-01
	1.764807982284927e-06

 97	9.700000000000006e-01
	1.567303688086002e-06

 98	9.800000000000006e-01
	1.385902863944637e-06

 99	9.900000000000007e-01
	1.220245688964368e-06

 100	1.000000000000001e+00
	1.069851394008810e-06

 101	1.010000000000001e+00
	9.341293158060042e-07

 102	1.020000000000001e+00
	8.123897574685794e-07

 103	1.030000000000001e+00
	7.038563940800702e-07

 104	1.040000000000001e+00
	6.076810023601365e-07

 105	1.050000000000001e+00
	5.229606009450722e-07

 106	1.060000000000001e+00
	4.487565433282208e-07

 107	1.070000000000001e+00
	3.841146943307005e-07

 108	1.080000000000001e+00
	3.280855672285020e-07

 109	1.090000000000001e+00
	2.797432259676021e-07

 110	1.100000000000001e+00
	2.382018650227436e-07

 111	1.110000000000001e+00
	2.026292377487012e-07

 112	1.120000000000001e+00
	1.722564554354573e-07

 113	1.130000000000001e+00
	1.463840548538158e-07

 114	1.140000000000001e+00
	1.243845679312374e-07

 115	1.150000000000001e+00
	1.057020781610118e-07

 116	1.160000000000001e+00
	8.984939430322915e-08

 117	1.170000000000001e+00
	7.640351638987750e-08

 118	1.180000000000001e+00
	6.500003210525276e-08

 119	1.190000000000001e+00
	5.532699106021960e-08

 120	1.200000000000001e+00
	4.711868792662955e-08

 121	1.210000000000001e+00
	4.014966522291370e-08

 122	1.220000000000001e+00
	3.422913777652982e-08

 123	1.230000000000001e+00
	2.919595149363043e-08

 124	1.240000000000001e+00
	2.491412138201648e-08

 125	1.250000000000001e+00
	2.126894650112387e-08

 126	1.260000000000001e+00
	1.816366939756264e-08

 127	1.270000000000001e+00
	1.551663072155204e-08

 128	1.280000000000001e+00
	1.325886237343976e-08

 129	1.290000000000001e+00
	1.133206152892681e-08

 130	1.300000000000001e+00
	9.686890775571773e-09

 131	1.310000000000001e+00
	8.281554577052924e-09

 132	1.320000000000001e+00
	7.080608154148406e-09

 133	1.330000000000001e+00
	6.053960869546366e-09

 134	1.340000000000001e+00
	5.176041869022843e-09

 135	1.350000000000001e+00
	4.425100848197742e-09

 136	1.360000000000001e+00
	3.782621286801844e-09

 137	1.370000000000001e+00
	3.232827315585892e-09

 138	1.380000000000001e+00
	2.762268614088502e-09

 139	1.390000000000001e+00
	2.359470420583421e-09

 140	1.400000000000001e+00
	2.014637971380612e-09

 141	1.410000000000001e+00
	1.719406521688249e-09

 142	1.420000000000001e+00
	1.466629611323040e-09

 143	1.430000000000001e+00
	1.250199484173506e-09

 144	1.440000000000001e+00
	1.064894587444533e-09

 145	1.450000000000001e+00
	9.062499193076793e-10

 146	1.460000000000001e+00
	7.704466826507076e-10

 147	1.470000000000001e+00
	6.542182774885732e-10

 148	1.480000000000001e+00
	5.547701352698539e-10

 149	1.490000000000001e+00
	4.697112904655199e-10

 150	1.500000000000001e+00
	3.969959147812391e-10

 151	1.510000000000001e+00
	3.348733108661874e-10

 152	1.520000000000001e+00
	2.818450946911472e-10

 153	1.530000000000001e+00
	2.366284896084822e-10

 154	1.540000000000001e+00
	1.981248244064284e-10

 155	1.550000000000001e+00
	1.653924709638993e-10

 156	1.560000000000001e+00
	1.376235818337248e-10

 157	1.570000000000001e+00
	1.141241015351257e-10

 158	1.580000000000001e+00
	9.429661616425299e-11

 159	1.590000000000001e+00
	7.762569104200826e-11

 160	1.600000000000001e+00
	6.366540645182763e-11

 161	1.610000000000001e+00
	5.202885350980110e-11

 162	1.620000000000001e+00
	4.237937780294634e-11

 163	1.630000000000001e+00
	3.442337292639952e-11

 164	1.640000000000001e+00
	2.790442505342203e-11

 165	1.650000000000001e+00
	2.259859714196927e-11

 166	1.660000000000001e+00
	1.831063968037878e-11

 167	1.670000000000001e+00
	1.487090990251828e-11

 168	1.680000000000001e+00
	1.213279764596002e-11

 169	1.690000000000001e+00
	9.970483497495855e-12

 170	1.700000000000001e+00
	8.276896627969093e-12

 171	1.710000000000001e+00
	6.961781051302019e-12

 172	1.720000000000001e+00
	5.949826178210142e-12

 173	1.730000000000001e+00
	5.178851634391899e-12

 174	1.740000000000001e+00
	4.598058665763405e-12

 175	1.750000000000001e+00
	4.166376017377987e-12

 176	1.760000000000001e+00
	3.850927683257904e-12

 177	1.770000000000001e+00
	3.625645665386204e-12

 178	1.780000000000001e+00
	3.470041686592436e-12

 179	1.790000000000001e+00
	3.368145610101269e-12

 180	1.800000000000001e+00
	3.307601679057119e-12

 181	1.810000000000001e+00
	3.278917624818298e-12

 182	1.820000000000001e+00
	3.274847067588099e-12

 183	1.830000000000001e+00
	3.289890809274761e-12

 184	1.840000000000001e+00
	3.319899003012208e-12

 185	1.850000000000001e+00
	3.361756834384339e-12

 186	1.860000000000001e+00
	3.413139221641093e-12

 187	1.870000000000001e+00
	3.472319794191517e-12

 188	1.880000000000001e+00
	3.538024872836173e-12

 189	1.890000000000001e+00
	3.609321625328185e-12

 190	1.900000000000001e+00
	3.685532727420330e-12

 191	1.910000000000001e+00
	3.766172190136506e-12

 192	1.920000000000001e+00
	3.850896716992554e-12

 193	1.930000000000001e+00
	3.939469620815415e-12

 194	1.940000000000002e+00
	4.031732795423744e-12

 195	1.950000000000002e+00
	4.127587423536886e-12

 196	1.960000000000002e+00
	4.226978298064927e-12

 197	1.970000000000002e+00
	4.329881953074936e-12

 198	1.980000000000002e+00
	4.436299536983101e-12

 199	1.990000000000002e+00
	4.546249856813083e-12

 200	2.000000000000001e+00
	4.659764814476263e-12

 201	2.010000000000001e+00
	4.776886167284886e-12

 202	2.020000000000001e+00
	4.897663214726888e-12

 203	2.030000000000001e+00
	5.022149973741716e-12

 204	2.040000000000000e+00
	5.150405676807442e-12

 205	2.050000000000000e+00
	5.282491597260408e-12

 206	2.060000000000000e+00
	5.418471715631616e-12

 207	2.070000000000000e+00
	5.558411862004834e-12

 208	2.080000000000000e+00
	5.702378837457063e-12

 209	2.089999999999999e+00
	5.850440743761311e-12

 210	2.099999999999999e+00
	6.002666543060101e-12

 211	2.109999999999999e+00
	6.159125424487186e-12

 212	2.119999999999999e+00
	6.319887628028001e-12

 213	2.129999999999999e+00
	6.485023117992037e-12

 214	2.139999999999998e+00
	6.654602912435211e-12

 215	2.149999999999998e+00
	6.828697376740453e-12

 216	2.159999999999998e+00
	7.007378021011770e-12

 217	2.169999999999998e+00
	7.190715831038974e-12

 218	2.179999999999997e+00
	7.378782142984542e-12

 219	2.189999999999997e+00
	7.571648313712688e-12

 220	2.199999999999997e+00
	7.769385903204542e-12

 221	2.209999999999997e+00
	7.972066671477777e-12

 222	2.219999999999997e+00
	8.179761723624221e-12

 223	2.229999999999996e+00
	8.392543203726855e-12

 224	2.239999999999996e+00
	8.610482305090504e-12

 225	2.249999999999996e+00
	8.833650826703826e-12

 226	2.259999999999996e+00
	9.062120124039235e-12

 227	2.269999999999996e+00
	9.295962057562735e-12

 228	2.279999999999995e+00
	9.535248129325542e-12

 229	2.289999999999995e+00
	9.780049136815541e-12

 230	2.299999999999995e+00
	1.003043694735270e-11

